
#(C) 2016 by FIZ Karlsruhe - Leibniz Institute for Information Infrastructure.  All rights reserved.
#
# Changes:
# 03/30/2017 - HvD - Changed alpha from 90.67(1) to exactly 90 as has been found
#                    in e.g. doi:10.1021/acs.jpcc.6b00923
data_84039-ICSD
_database_code_ICSD 84039
_audit_creation_date 1999-01-19
_chemical_name_systematic 'Silicon oxide (96/192)'
_chemical_formula_structural 'Si96 O192'
_chemical_formula_sum 'O192 Si96'
_chemical_name_structure_type (Si,Ti)O2
_chemical_name_mineral 'Zeolite H-ZSM-5'
_exptl_crystal_density_diffrn 1.79
_publ_section_title

;
The monoclinic framework structure of zeolite H-ZSM-5. Comparison with the
orthorhombic framework of as-synthesized ZSM-5
;
loop_
_citation_id
_citation_journal_full
_citation_year
_citation_journal_volume
_citation_page_first
_citation_page_last
_citation_journal_id_ASTM
primary Zeolites 1990 10 235 242 ZEOLD3
loop_
_publ_author_name
'van Koningsveld, H.'
'Jansen, J.C.'
'van Bekkum, H.'
_cell_length_a 20.1070(20)
_cell_length_b 19.879(2)
_cell_length_c 13.369(1)
#_cell_angle_alpha 90.67(1)
_cell_angle_alpha 90.
_cell_angle_beta 90.
_cell_angle_gamma 90.
_cell_volume 5343.32
_cell_formula_units_Z 1
_symmetry_space_group_name_H-M 'P 21/n 1 1'
_symmetry_Int_Tables_number 14
_refine_ls_R_factor_all 0.044
loop_
_symmetry_equiv_pos_site_id
_symmetry_equiv_pos_as_xyz
1 'x+1/2, -y+1/2, -z+1/2'
2 '-x+1/2, y+1/2, z+1/2'
3 '-x, -y, -z'
4 'x, y, z'
loop_
_atom_type_symbol
_atom_type_oxidation_number
Si4+ 4
O2- -2
loop_
_atom_site_label
_atom_site_type_symbol
_atom_site_symmetry_multiplicity
_atom_site_Wyckoff_symbol
_atom_site_fract_x
_atom_site_fract_y
_atom_site_fract_z
_atom_site_B_iso_or_equiv
_atom_site_occupancy
_atom_site_attached_hydrogens
Si1 Si4+ 4 e 0.42056(5) 0.05546(5) 0.68010(8) 0.0100(3) 1. 0
Si2 Si4+ 4 e 0.31368(5) 0.03090(5) 0.83642(8) 0.0109(3) 1. 0
Si3 Si4+ 4 e 0.27960(5) 0.06249(5) 0.05346(8) 0.0111(3) 1. 0
Si4 Si4+ 4 e 0.12395(5) 0.06233(5) 0.03674(8) 0.0109(3) 1. 0
Si5 Si4+ 4 e 0.07678(5) 0.02804(5) 0.82403(8) 0.0100(3) 1. 0
Si6 Si4+ 4 e 0.19556(5) 0.05585(5) 0.68669(8) 0.0103(3) 1. 0
Si7 Si4+ 4 e 0.42542(5) 0.82852(5) 0.68070(8) 0.0106(3) 1. 0
Si8 Si4+ 4 e 0.31225(5) 0.87347(5) 0.82612(8) 0.0110(3) 1. 0
Si9 Si4+ 4 e 0.27325(5) 0.82410(5) 0.03597(8) 0.0100(3) 1. 0
Si10 Si4+ 4 e 0.11895(5) 0.82366(5) 0.03436(8) 0.0112(3) 1. 0
Si11 Si4+ 4 e 0.07156(5) 0.87061(5) 0.82484(8) 0.0110(3) 1. 0
Si12 Si4+ 4 e 0.19079(5) 0.83472(5) 0.68592(8) 0.0107(3) 1. 0
Si13 Si4+ 4 e 0.42837(5) 0.44297(5) 0.66544(8) 0.0101(3) 1. 0
Si14 Si4+ 4 e 0.31237(5) 0.47305(5) 0.81186(8) 0.0115(3) 1. 0
Si15 Si4+ 4 e 0.27704(5) 0.43889(5) 0.02940(8) 0.0106(3) 1. 0
Si16 Si4+ 4 e 0.12155(5) 0.43563(5) 0.03380(8) 0.0106(3) 1. 0
Si17 Si4+ 4 e 0.07096(5) 0.47315(5) 0.82156(8) 0.0097(3) 1. 0
Si18 Si4+ 4 e 0.18737(5) 0.43778(5) 0.68257(8) 0.0110(3) 1. 0
Si19 Si4+ 4 e 0.42389(5) 0.67204(5) 0.68583(8) 0.0103(3) 1. 0
Si20 Si4+ 4 e 0.31278(5) 0.63130(5) 0.83164(8) 0.0116(3) 1. 0
Si21 Si4+ 4 e 0.27312(5) 0.66892(5) 0.04608(8) 0.0105(3) 1. 0
Si22 Si4+ 4 e 0.11867(5) 0.67007(5) 0.03868(8) 0.0105(3) 1. 0
Si23 Si4+ 4 e 0.07268(5) 0.63082(5) 0.82243(8) 0.0117(3) 1. 0
Si24 Si4+ 4 e 0.19446(5) 0.68070(5) 0.70211(8) 0.0102(3) 1. 0
O1 O2- 4 e 0.3779(2) 0.0588(2) 0.7806(2) 0.030(1) 1. 0
O2 O2- 4 e 0.3106(2) 0.0662(2) -.0564(2) 0.024(1) 1. 0
O3 O2- 4 e 0.2018(2) 0.0472(2) 0.0465(3) 0.035(1) 1. 0
O4 O2- 4 e 0.1032(2) 0.0671(2) -.0784(2) 0.024(1) 1. 0
O5 O2- 4 e 0.1230(1) 0.0443(2) 0.7307(2) 0.025(1) 1. 0
O6 O2- 4 e 0.2483(2) 0.0477(2) 0.7752(2) 0.034(1) 1. 0
O7 O2- 4 e 0.3769(2) 0.8467(2) 0.7711(3) 0.034(1) 1. 0
O8 O2- 4 e 0.3050(2) 0.8331(2) -.0725(2) 0.030(1) 1. 0
O9 O2- 4 e 0.1960(2) 0.8442(2) 0.0316(3) 0.029(1) 1. 0
O10 O2- 4 e 0.0885(2) 0.8311(2) -.0753(2) 0.034(1) 1. 0
O11 O2- 4 e 0.1208(2) 0.8489(2) 0.7370(3) 0.033(1) 1. 0
O12 O2- 4 e 0.2483(2) 0.8624(2) 0.7576(3) 0.036(1) 1. 0
O13 O2- 4 e 0.3189(2) -.0485(2) 0.8510(3) 0.039(1) 1. 0
O14 O2- 4 e 0.0781(2) -.0509(2) 0.8471(2) 0.028(1) 1. 0
O15 O2- 4 e 0.4145(2) 0.1253(2) 0.6229(3) 0.031(1) 1. 0
O16 O2- 4 e 0.3923(2) -.0041(2) 0.6108(3) 0.033(1) 1. 0
O17 O2- 4 e 0.4022(2) 0.8660(2) 0.5814(2) 0.027(1) 1. 0
O18 O2- 4 e 0.2003(2) 0.1298(1) 0.6417(2) 0.024(1) 1. 0
O19 O2- 4 e 0.2099(2) 0.0026(2) 0.5992(2) 0.031(1) 1. 0
O20 O2- 4 e 0.1948(2) 0.8725(1) 0.5812(2) 0.026(1) 1. 0
O21 O2- 4 e 0.0032(1) 0.0515(2) 0.7959(2) 0.022(1) 1. 0
O22 O2- 4 e -.0023(2) 0.8525(2) 0.7902(2) 0.026(1) 1. 0
O23 O2- 4 e 0.4239(2) 0.7499(2) 0.6587(3) 0.031(1) 1. 0
O24 O2- 4 e 0.1987(2) 0.7565(1) 0.6644(2) 0.026(1) 1. 0
O25 O2- 4 e 0.2822(2) 0.7475(2) 0.0676(2) 0.023(1) 1. 0
O26 O2- 4 e 0.1101(2) 0.7474(1) 0.0697(2) 0.020(1) 1. 0
O27 O2- 4 e 0.3799(2) 0.4503(2) 0.7592(2) 0.035(1) 1. 0
O28 O2- 4 e 0.3143(2) 0.4480(2) -.0754(2) 0.026(1) 1. 0
O29 O2- 4 e 0.1991(2) 0.4318(2) 0.0094(3) 0.031(1) 1. 0
O30 O2- 4 e 0.0812(2) 0.4478(2) -.0669(2) 0.032(1) 1. 0
O31 O2- 4 e 0.1206(2) 0.4351(2) 0.7473(2) 0.024(1) 1. 0
O32 O2- 4 e 0.2505(2) 0.4401(2) 0.7549(2) 0.030(1) 1. 0
O33 O2- 4 e 0.3797(2) 0.6590(2) 0.7831(2) 0.028(1) 1. 0
O34 O2- 4 e 0.3148(2) 0.6459(2) -.0508(2) 0.022(1) 1. 0
O35 O2- 4 e 0.1961(2) 0.6513(2) 0.0270(2) 0.026(1) 1. 0
O36 O2- 4 e 0.0822(2) 0.6559(2) -.0653(2) 0.035(1) 1. 0
O37 O2- 4 e 0.1232(2) 0.6678(2) 0.7496(3) 0.035(1) 1. 0
O38 O2- 4 e 0.2497(2) 0.6694(2) 0.7856(2) 0.032(1) 1. 0
O39 O2- 4 e 0.3054(2) 0.5530(2) 0.8087(3) 0.040(1) 1. 0
O40 O2- 4 e 0.0851(2) 0.5519(2) 0.8166(3) 0.032(1) 1. 0
O41 O2- 4 e 0.4186(2) 0.3714(2) 0.6115(3) 0.034(1) 1. 0
O42 O2- 4 e 0.4154(2) 0.5015(2) 0.5865(2) 0.029(1) 1. 0
O43 O2- 4 e 0.3938(2) 0.6320(2) 0.5913(2) 0.028(1) 1. 0
O44 O2- 4 e 0.1900(2) 0.3711(2) 0.6153(2) 0.025(1) 1. 0
O45 O2- 4 e 0.1862(2) 0.5032(2) 0.6137(2) 0.028(1) 1. 0
O46 O2- 4 e 0.2074(2) 0.6326(2) 0.6086(2) 0.035(1) 1. 0
O47 O2- 4 e -.0039(1) 0.4576(2) 0.7896(2) 0.025(1) 1. 0
O48 O2- 4 e -.0013(2) 0.6481(2) 0.7880(2) 0.027(1) 1. 0
#End of TTdata_84039-ICSD
